+ 0.5 0 1 tcp 40 ------- 0 0.0 1.0 0 0
- 0.5 0 1 tcp 40 ------- 0 0.0 1.0 0 0
r 0.51032 0 1 tcp 40 ------- 0 0.0 1.0 0 0
+ 0.51032 1 0 ack 40 ------- 0 1.0 0.0 0 1
- 0.51032 1 0 ack 40 ------- 0 1.0 0.0 0 1
r 0.52064 1 0 ack 40 ------- 0 1.0 0.0 0 1
+ 0.52064 0 1 tcp 1040 ------- 0 0.0 1.0 1 2
- 0.52064 0 1 tcp 1040 ------- 0 0.0 1.0 1 2
r 0.53896 0 1 tcp 1040 ------- 0 0.0 1.0 1 2
+ 0.53896 1 0 ack 40 ------- 0 1.0 0.0 1 3
- 0.53896 1 0 ack 40 ------- 0 1.0 0.0 1 3
r 0.54928 1 0 ack 40 ------- 0 1.0 0.0 1 3
